 Gaussian 09, Revision D.01,
 Gaussian 09:  ES64L-G09RevD.01 24-Apr-2013

 ----------------------------------------------------------------------
 # opt=(calcfc,noeigen) freq=noraman b3lyp scrf=(cpcm,solvent=dichloroe
 thane) nosymm def2svp empiricaldispersion=gd3
 ----------------------------------------------------------------------

 ------------
 Tri-alkyl-L3
 ------------
 Symbolic Z-matrix:
 Charge =  0 Multiplicity = 1

 SCF Done:  E(RB3LYP) =  -853.699955755     A.U. after   12 cycles
 SCF Done:  E(RB3LYP) =  -853.724793807     A.U. after   10 cycles
 SCF Done:  E(RB3LYP) =  -853.759863052     A.U. after   10 cycles
 SCF Done:  E(RB3LYP) =  -853.778112829     A.U. after   10 cycles
 SCF Done:  E(RB3LYP) =  -853.780974176     A.U. after   10 cycles
 SCF Done:  E(RB3LYP) =  -853.778468651     A.U. after   12 cycles
 SCF Done:  E(RB3LYP) =  -853.787225270     A.U. after    8 cycles
 SCF Done:  E(RB3LYP) =  -853.777428182     A.U. after   10 cycles
 SCF Done:  E(RB3LYP) =  -853.790463412     A.U. after    8 cycles
 SCF Done:  E(RB3LYP) =  -853.788510822     A.U. after   10 cycles
 SCF Done:  E(RB3LYP) =  -853.797688490     A.U. after    7 cycles
 SCF Done:  E(RB3LYP) =  -853.797722044     A.U. after    7 cycles
 SCF Done:  E(RB3LYP) =  -853.797770642     A.U. after    8 cycles
 SCF Done:  E(RB3LYP) =  -853.797794128     A.U. after    8 cycles
 SCF Done:  E(RB3LYP) =  -853.797797054     A.U. after    7 cycles
 SCF Done:  E(RB3LYP) =  -853.797797942     A.U. after    7 cycles
 SCF Done:  E(RB3LYP) =  -853.797798485     A.U. after    6 cycles
 SCF Done:  E(RB3LYP) =  -853.797798634     A.U. after    6 cycles
 SCF Done:  E(RB3LYP) =  -853.797798713     A.U. after    6 cycles
 Optimization completed.
    -- Stationary point found.
 Normal termination of Gaussian 09 at Tue May 14 17:06:09 2019.

 -------------------------------------------------------------------
 #N Geom=AllCheck Guess=TCheck SCRF=Check GenChk RB3LYP/def2SVP Freq
 -------------------------------------------------------------------

 Structure from the checkpoint file:  "Tri-alkyl-L3.chk"
 ------------
 Tri-alkyl-L3
 ------------
 Charge =  0 Multiplicity = 1

                          Input orientation:
 ---------------------------------------------------------------------
 Center     Atomic      Atomic             Coordinates (Angstroms)
 Number     Number       Type             X           Y           Z
 ---------------------------------------------------------------------
      1         15           0       -0.039556   -1.535251    0.238302
      2          6           0        0.900566   -0.601316    1.641646
      3          6           0        0.801988   -1.411200    2.947279
      4          6           0        2.375053   -0.241175    1.385171
      5          6           0        0.106947    0.710762    1.827997
      6          1           0       -0.228060   -1.748368    3.146836
      7          1           0        1.457286   -2.294283    2.936759
      8          1           0        1.118978   -0.782005    3.797128
      9          1           0        2.508986    0.362053    0.474912
     10          1           0        2.752647    0.363822    2.228651
     11          1           0        3.020151   -1.124507    1.304160
     12          1           0        0.537514    1.288686    2.664192
     13          1           0        0.147385    1.350258    0.933466
     14          1           0       -0.952590    0.518315    2.059750
     15          6           0        0.748619   -3.276498   -0.011862
     16          6           0        2.283636   -3.330131    0.002800
     17          6           0        0.184018   -4.214614    1.075240
     18          6           0        0.247833   -3.802824   -1.373129
     19          1           0        2.731711   -2.614981   -0.704989
     20          1           0        2.694091   -3.127457    1.002319
     21          1           0        2.624478   -4.340025   -0.287595
     22          1           0       -0.917738   -4.212788    1.072933
     23          1           0        0.519538   -5.248695    0.882048
     24          1           0        0.520159   -3.945893    2.085107
     25          1           0        0.551756   -4.857625   -1.486747
     26          1           0       -0.849412   -3.762036   -1.453217
     27          1           0        0.673692   -3.249831   -2.222573
     28          6           0        0.536995   -0.586975   -1.290197
     29          1           0        1.148413    0.262824   -0.952610
     30          1           0        1.220989   -1.225995   -1.870426
     31          6           0       -0.560476   -0.024100   -2.239945
     32          6           0       -1.458996   -1.138680   -2.802244
     33          6           0       -1.435135    1.006181   -1.503793
     34          6           0        0.154781    0.676551   -3.412155
     35          1           0       -0.873625   -1.877778   -3.370641
     36          1           0       -1.987913   -1.670438   -1.995921
     37          1           0       -2.217421   -0.714959   -3.481073
     38          1           0       -0.830279    1.850604   -1.134663
     39          1           0       -2.204956    1.415249   -2.178697
     40          1           0       -1.947102    0.552610   -0.640520
     41          1           0       -0.574637    1.114864   -4.113477
     42          1           0        0.806800    1.489692   -3.052078
     43          1           0        0.781451   -0.033810   -3.976472
 ---------------------------------------------------------------------

 SCF Done:  E(RB3LYP) =  -853.797798713     A.U. after    1 cycles

 Alpha  occ. eigenvalues --  -77.03553 -10.19988 -10.19926 -10.19496 -10.17841
 Alpha  occ. eigenvalues --  -10.17800 -10.17746 -10.17742 -10.17733 -10.17597
 Alpha  occ. eigenvalues --  -10.17551 -10.17308 -10.17108 -10.17050  -6.53089
 Alpha  occ. eigenvalues --   -4.69699  -4.69694  -4.69201  -0.81601  -0.80297
 Alpha  occ. eigenvalues --   -0.79254  -0.69112  -0.67992  -0.67611  -0.67520
 Alpha  occ. eigenvalues --   -0.67122  -0.67036  -0.66730  -0.59852  -0.53904
 Alpha  occ. eigenvalues --   -0.52766  -0.49697  -0.46530  -0.45174  -0.45002
 Alpha  occ. eigenvalues --   -0.44365  -0.43838  -0.43184  -0.42842  -0.42294
 Alpha  occ. eigenvalues --   -0.41253  -0.39485  -0.39360  -0.38476  -0.38056
 Alpha  occ. eigenvalues --   -0.37650  -0.37501  -0.36794  -0.36078  -0.35849
 Alpha  occ. eigenvalues --   -0.35615  -0.34653  -0.33716  -0.33076  -0.33025
 Alpha  occ. eigenvalues --   -0.32577  -0.32162  -0.31648  -0.28993  -0.27845
 Alpha  occ. eigenvalues --   -0.21295
 Alpha virt. eigenvalues --    0.04040   0.05049   0.05336   0.06959   0.07180
 Alpha virt. eigenvalues --    0.08639   0.09238   0.09586   0.09841   0.10435
 Alpha virt. eigenvalues --    0.11323   0.11436   0.11941   0.12035   0.13014

 Mulliken charges:
               1
     1  P    0.200888
     2  C   -0.403674
     3  C    0.075182
     4  C    0.096330
     5  C    0.080926
     6  H    0.011990
     7  H    0.024016
     8  H    0.002767
     9  H    0.004247
    10  H    0.000166
    11  H    0.000202
    12  H    0.006206
    13  H    0.005274
    14  H    0.011768
    15  C   -0.404795
    16  C    0.091795
    17  C    0.088548
    18  C    0.072758
    19  H    0.011252
    20  H    0.020013
    21  H   -0.000500
    22  H    0.004372
    23  H    0.003621
    24  H    0.000824
    25  H    0.005965
    26  H    0.014644
    27  H    0.014116
    28  C   -0.072690
    29  H    0.023060
    30  H    0.022490
    31  C   -0.245039
    32  C    0.069832
    33  C    0.061435
    34  C    0.064669
    35  H    0.002577
    36  H    0.011069
    37  H   -0.000693
    38  H    0.010360
    39  H    0.000041
    40  H    0.008634
    41  H    0.002065
    42  H    0.001211
    43  H    0.002077
 Sum of Mulliken charges =  -0.00000

 Dipole moment (field-independent basis, Debye):
    X=              1.6122    Y=              0.0037    Z=             -0.1675  Tot=              1.6209
 Quadrupole moment (field-independent basis, Debye-Ang):
   XX=           -103.3916   YY=           -100.6888   ZZ=           -100.9137
   XY=             -2.7433   XZ=              0.9265   YZ=              0.6625

  Exact polarizability: 203.991  -3.992 236.268  10.670   1.000 234.296
 Approx polarizability: 229.532  -1.584 253.731   6.490   2.399 250.111

                      1                      2                      3
                      A                      A                      A
 Frequencies --     43.8018                55.9905                70.3926
 Red. masses --      2.7654                 2.6619                 2.5814
 Frc consts  --      0.0031                 0.0049                 0.0075
 IR Inten    --      0.0100                 0.0161                 0.0177

                      4                      5                      6
                      A                      A                      A
 Frequencies --    100.5082               145.3272               177.2541
 Red. masses --      3.1743                 2.8840                 3.6747
 Frc consts  --      0.0189                 0.0359                 0.0680
 IR Inten    --      0.0194                 0.3391                 0.0108

                      7                      8                      9
                      A                      A                      A
 Frequencies --    197.6090               217.6507               229.5363
 Red. masses --      2.5754                 2.2992                 1.8440
 Frc consts  --      0.0593                 0.0642                 0.0572
 IR Inten    --      0.0354                 0.1239                 0.2860

                     10                     11                     12
                      A                      A                      A
 Frequencies --    241.6157               248.5219               258.9872
 Red. masses --      1.2288                 1.2569                 1.7175
 Frc consts  --      0.0423                 0.0457                 0.0679
 IR Inten    --      0.0222                 0.0177                 0.0824

                     13                     14                     15
                      A                      A                      A
 Frequencies --    263.5494               268.9371               276.5095
 Red. masses --      1.4809                 1.7341                 1.6159
 Frc consts  --      0.0606                 0.0739                 0.0728
 IR Inten    --      0.1941                 0.0741                 0.1720

                     16                     17                     18
                      A                      A                      A
 Frequencies --    305.2003               307.2260               316.6563
 Red. masses --      1.1767                 1.2371                 1.2917
 Frc consts  --      0.0646                 0.0688                 0.0763
 IR Inten    --      0.0680                 0.2567                 0.2546

                     19                     20                     21
                      A                      A                      A
 Frequencies --    327.0498               335.4214               350.3748
 Red. masses --      1.1355                 1.1042                 1.1067
 Frc consts  --      0.0716                 0.0732                 0.0800
 IR Inten    --      0.3537                 0.1385                 0.1344

                     22                     23                     24
                      A                      A                      A
 Frequencies --    362.7631               366.5302               380.9352
 Red. masses --      1.8471                 2.1009                 2.5304
 Frc consts  --      0.1432                 0.1663                 0.2163
 IR Inten    --      0.4515                 0.0613                 0.7411

                     25                     26                     27
                      A                      A                      A
 Frequencies --    399.7838               406.8954               415.5313
 Red. masses --      2.6468                 2.3724                 2.1478
 Frc consts  --      0.2492                 0.2314                 0.2185
 IR Inten    --      1.0672                 1.0763                 0.1928

                     28                     29                     30
                      A                      A                      A
 Frequencies --    426.3687               433.8052               448.5100
 Red. masses --      2.0498                 2.5780                 3.0726
 Frc consts  --      0.2195                 0.2858                 0.3642
 IR Inten    --      0.6655                 3.5233                 1.4334

                     31                     32                     33
                      A                      A                      A
 Frequencies --    467.1909               496.2387               575.5496
 Red. masses --      2.6504                 2.6345                 2.8962
 Frc consts  --      0.3408                 0.3822                 0.5653
 IR Inten    --      4.1267                 3.1933                 4.2850

                     34                     35                     36
                      A                      A                      A
 Frequencies --    590.2013               714.7063               771.1821
 Red. masses --      3.0807                 4.4992                 3.4561
 Frc consts  --      0.6323                 1.3541                 1.2110
 IR Inten    --      5.7272                 7.4513                 2.9189

                     37                     38                     39
                      A                      A                      A
 Frequencies --    796.3066               817.1738               821.0679
 Red. masses --      1.7943                 2.7947                 2.7565
 Frc consts  --      0.6704                 1.0995                 1.0949
 IR Inten    --      9.2710                12.5005                14.7250

                     40                     41                     42
                      A                      A                      A
 Frequencies --    919.7234               938.9669               941.9323
 Red. masses --      2.0904                 1.7469                 1.6697
 Frc consts  --      1.0418                 0.9075                 0.8728
 IR Inten    --      3.1279                 1.3547                 0.4796

                     43                     44                     45
                      A                      A                      A
 Frequencies --    942.3276               945.9490               947.1259
 Red. masses --      1.7324                 1.6816                 1.6576
 Frc consts  --      0.9064                 0.8866                 0.8761
 IR Inten    --      2.0608                 0.2281                 1.5060

                     46                     47                     48
                      A                      A                      A
 Frequencies --    948.2835               959.2884               960.7865
 Red. masses --      1.6498                 1.2102                 1.1986
 Frc consts  --      0.8741                 0.6561                 0.6519
 IR Inten    --      2.3956                 0.0240                 0.0829

                     49                     50                     51
                      A                      A                      A
 Frequencies --    962.1403              1022.7151              1028.7886
 Red. masses --      1.2028                 1.3684                 1.3631
 Frc consts  --      0.6560                 0.8433                 0.8500
 IR Inten    --      0.1250                 0.7235                 0.1972

                     52                     53                     54
                      A                      A                      A
 Frequencies --   1033.0963              1036.0147              1039.4631
 Red. masses --      1.3741                 1.3639                 1.3741
 Frc consts  --      0.8641                 0.8625                 0.8748
 IR Inten    --      2.6514                 5.4071                 3.4097

                     55                     56                     57
                      A                      A                      A
 Frequencies --   1041.6194              1151.9387              1189.8462
 Red. masses --      1.3905                 1.3145                 2.0395
 Frc consts  --      0.8889                 1.0277                 1.7012
 IR Inten    --      1.2534                10.5525                56.8384

                     58                     59                     60
                      A                      A                      A
 Frequencies --   1196.1609              1204.4128              1206.0068
 Red. masses --      2.0001                 1.8530                 2.4739
 Frc consts  --      1.6861                 1.5837                 2.1200
 IR Inten    --     24.9597                 8.4042                 0.5771

                     61                     62                     63
                      A                      A                      A
 Frequencies --   1218.4742              1222.3694              1228.0265
 Red. masses --      2.6117                 2.7037                 2.7431
 Frc consts  --      2.2846                 2.3802                 2.4373
 IR Inten    --      2.3371                 1.4394                 1.7366

                     64                     65                     66
                      A                      A                      A
 Frequencies --   1256.1934              1291.0602              1310.8162
 Red. masses --      2.6993                 1.7466                 1.5395
 Frc consts  --      2.5096                 1.7152                 1.5585
 IR Inten    --     29.9331                 1.4202                 0.4027

                     67                     68                     69
                      A                      A                      A
 Frequencies --   1379.6359              1382.3291              1383.0384
 Red. masses --      1.2275                 1.2531                 1.2379
 Frc consts  --      1.3766                 1.4108                 1.3951
 IR Inten    --      1.0701                 6.0258                 4.1395

                     70                     71                     72
                      A                      A                      A
 Frequencies --   1385.3688              1386.9728              1387.7886
 Red. masses --      1.2543                 1.2512                 1.2273
 Frc consts  --      1.4184                 1.4182                 1.3926
 IR Inten    --      8.8362                 3.9298                15.6199

                     73                     74                     75
                      A                      A                      A
 Frequencies --   1406.9460              1408.9321              1415.4499
 Red. masses --      1.2077                 1.2138                 1.2101
 Frc consts  --      1.4085                 1.4196                 1.4285
 IR Inten    --      7.2311                 6.9400                 2.3639

                     76                     77                     78
                      A                      A                      A
 Frequencies --   1425.4923              1446.1660              1448.5760
 Red. masses --      1.0967                 1.0440                 1.0443
 Frc consts  --      1.3130                 1.2864                 1.2911
 IR Inten    --      0.7652                 1.0655                 3.6226

                     79                     80                     81
                      A                      A                      A
 Frequencies --   1449.9321              1451.4591              1453.4103
 Red. masses --      1.0464                 1.0455                 1.0446
 Frc consts  --      1.2962                 1.2977                 1.3001
 IR Inten    --      0.9761                 0.4473                 0.7629

                     82                     83                     84
                      A                      A                      A
 Frequencies --   1454.5392              1457.5826              1459.6633
 Red. masses --      1.0459                 1.0443                 1.0458
 Frc consts  --      1.3038                 1.3073                 1.3128
 IR Inten    --      0.9632                 1.2428                 4.0873

                     85                     86                     87
                      A                      A                      A
 Frequencies --   1464.3822              1467.1191              1471.7216
 Red. masses --      1.0454                 1.0521                 1.0552
 Frc consts  --      1.3208                 1.3343                 1.3466
 IR Inten    --      1.9314                 5.2813                 0.9801

                     88                     89                     90
                      A                      A                      A
 Frequencies --   1475.4625              1476.3984              1480.3243
 Red. masses --      1.0694                 1.0566                 1.0532
 Frc consts  --      1.3717                 1.3570                 1.3598
 IR Inten    --      7.5244                 6.0167                12.9184

                     91                     92                     93
                      A                      A                      A
 Frequencies --   1483.5583              1487.1950              1489.7012
 Red. masses --      1.0526                 1.0556                 1.0540
 Frc consts  --      1.3650                 1.3756                 1.3782
 IR Inten    --     17.5271                25.6261                21.6763

                     94                     95                     96
                      A                      A                      A
 Frequencies --   1496.3051              3012.0484              3012.7164
 Red. masses --      1.0514                 1.0418                 1.0355
 Frc consts  --      1.3869                 5.5688                 5.5374
 IR Inten    --      1.4589                36.0929                53.1043

                     97                     98                     99
                      A                      A                      A
 Frequencies --   3014.5938              3016.9009              3018.0683
 Red. masses --      1.0387                 1.0391                 1.0382
 Frc consts  --      5.5617                 5.5722                 5.5717
 IR Inten    --     20.9672                16.1803                44.7667

                    100                    101                    102
                      A                      A                      A
 Frequencies --   3019.6748              3022.6643              3023.9923
 Red. masses --      1.0411                 1.0427                 1.0412
 Frc consts  --      5.5935                 5.6127                 5.6100
 IR Inten    --     27.3438               150.7100                59.3108

                    103                    104                    105
                      A                      A                      A
 Frequencies --   3025.8576              3051.1173              3087.3474
 Red. masses --      1.0396                 1.0627                 1.0967
 Frc consts  --      5.6082                 5.8289                 6.1590
 IR Inten    --     26.5917                22.0475                43.5022

                    106                    107                    108
                      A                      A                      A
 Frequencies --   3088.9246              3093.4940              3094.1214
 Red. masses --      1.1011                 1.1006                 1.1011
 Frc consts  --      6.1903                 6.2055                 6.2111
 IR Inten    --     24.9304                11.1871                35.8596

                    109                    110                    111
                      A                      A                      A
 Frequencies --   3094.9919              3095.6273              3097.2378
 Red. masses --      1.1027                 1.1033                 1.1015
 Frc consts  --      6.2234                 6.2294                 6.2256
 IR Inten    --     37.2470                 0.9717               102.4455

                    112                    113                    114
                      A                      A                      A
 Frequencies --   3098.6096              3099.8142              3103.2640
 Red. masses --      1.1017                 1.0948                 1.1011
 Frc consts  --      6.2321                 6.1982                 6.2475
 IR Inten    --     58.6792                97.3121                33.8029

                    115                    116                    117
                      A                      A                      A
 Frequencies --   3107.0437              3108.7085              3114.6866
 Red. masses --      1.1011                 1.1019                 1.1039
 Frc consts  --      6.2627                 6.2740                 6.3095
 IR Inten    --      7.6902                54.5416                23.3325

                    118                    119                    120
                      A                      A                      A
 Frequencies --   3120.7750              3123.6278              3125.7537
 Red. masses --      1.1030                 1.1020                 1.1033
 Frc consts  --      6.3291                 6.3353                 6.3513
 IR Inten    --     38.9687                34.5618                17.5644

                    121                    122                    123
                      A                      A                      A
 Frequencies --   3129.0037              3146.3511              3153.6193
 Red. masses --      1.1032                 1.0984                 1.1000
 Frc consts  --      6.3639                 6.4063                 6.4457
 IR Inten    --     45.4780                24.6262                29.2796

 - Thermochemistry -
 -------------------
 Temperature   298.150 Kelvin.  Pressure   1.00000 Atm.
 Atom     1 has atomic number 15 and mass  30.97376

 Molecular mass:   216.20069 amu.
 Principal axes and moments of inertia in atomic units:
                           1         2         3
     Eigenvalues --  2547.653443792.663475081.50466
           X            0.35660   0.04272   0.93328
           Y           -0.48658   0.86127   0.14649
           Z            0.79755   0.50635  -0.32791
 This molecule is an asymmetric top.
 Rotational symmetry number  1.
 Warning -- assumption of classical behavior for rotation
           may cause significant error
 Rotational temperatures (Kelvin)      0.03400     0.02284     0.01704
 Rotational constants (GHZ):           0.70839     0.47585     0.35516
 Zero-point vibrational energy    1036256.0 (Joules/Mol)
                                  247.67112 (Kcal/Mol)
 Warning -- explicit consideration of  34 degrees of freedom as
           vibrations may cause significant error
 Vibrational temperatures:     63.02    80.56   101.28   144.61   209.09
          (Kelvin)            255.03   284.31   313.15   330.25   347.63
                              357.57   372.62   379.19   386.94   397.84
                              439.11   442.03   455.60   470.55   482.60
                              504.11   521.93   527.35   548.08   575.20
                              585.43   597.86   613.45   624.15   645.31
                              672.18   713.98   828.09   849.17  1028.30
                             1109.56  1145.71  1175.73  1181.33  1323.28
                             1350.96  1355.23  1355.80  1361.01  1362.70
                             1364.37  1380.20  1382.36  1384.30  1471.46
                             1480.20  1486.39  1490.59  1495.55  1498.66
                             1657.38  1711.92  1721.01  1732.88  1735.17
                             1753.11  1758.71  1766.85  1807.38  1857.55
                             1885.97  1984.99  1988.86  1989.88  1993.23
                             1995.54  1996.72  2024.28  2027.14  2036.51
                             2050.96  2080.71  2084.18  2086.13  2088.32
                             2091.13  2092.75  2097.13  2100.13  2106.92
                             2110.85  2117.48  2122.86  2124.21  2129.85
                             2134.51  2139.74  2143.35  2152.85  4333.66
                             4334.62  4337.32  4340.64  4342.32  4344.63
                             4348.93  4350.85  4353.53  4389.87  4442.00
                             4444.27  4450.84  4451.75  4453.00  4453.91
                             4456.23  4458.20  4459.94  4464.90  4470.34
                             4472.73  4481.33  4490.09  4494.20  4497.26
                             4501.93  4526.89  4537.35

 Zero-point correction=                           0.394689 (Hartree/Particle)
 Thermal correction to Energy=                    0.413753
 Thermal correction to Enthalpy=                  0.414698
 Thermal correction to Gibbs Free Energy=         0.350575
 Sum of electronic and zero-point Energies=           -853.403110
 Sum of electronic and thermal Energies=              -853.384045
 Sum of electronic and thermal Enthalpies=            -853.383101
 Sum of electronic and thermal Free Energies=         -853.447223

                     E (Thermal)             CV                S
                      KCal/Mol        Cal/Mol-Kelvin    Cal/Mol-Kelvin
 Total                  259.634             75.694            134.957
 Electronic               0.000              0.000              0.000
 Translational            0.889              2.981             42.016
 Rotational               0.889              2.981             32.263
 Vibrational            257.857             69.733             60.678
 Vibration     1          0.595              1.980              5.079
 Vibration     2          0.596              1.975              4.594
 Vibration     3          0.598              1.968              4.142
 Vibration     4          0.604              1.949              3.444
 Vibration     5          0.617              1.908              2.733
 Vibration     6          0.628              1.870              2.357
 Vibration     7          0.637              1.843              2.155
 Vibration     8          0.646              1.814              1.979
 Vibration     9          0.652              1.796              1.883
 Vibration    10          0.658              1.777              1.791
 Vibration    11          0.662              1.765              1.741
 Vibration    12          0.668              1.748              1.669
 Vibration    13          0.670              1.740              1.638
 Vibration    14          0.673              1.730              1.603
 Vibration    15          0.678              1.717              1.555
 Vibration    16          0.696              1.664              1.388
 Vibration    17          0.697              1.660              1.377
 Vibration    18          0.704              1.642              1.327
 Vibration    19          0.711              1.621              1.275
 Vibration    20          0.717              1.605              1.234
 Vibration    21          0.727              1.574              1.165
 Vibration    22          0.737              1.549              1.110
 Vibration    23          0.739              1.541              1.094
 Vibration    24          0.751              1.511              1.035
 Vibration    25          0.766              1.471              0.963
 Vibration    26          0.772              1.455              0.938
 Vibration    27          0.779              1.437              0.907
 Vibration    28          0.788              1.413              0.871
 Vibration    29          0.795              1.397              0.846
 Vibration    30          0.808              1.364              0.800
 Vibration    31          0.824              1.323              0.745
 Vibration    32          0.852              1.258              0.668
 Vibration    33          0.932              1.084              0.494
 Vibration    34          0.948              1.053              0.467

 Normal termination of Gaussian 09 at Tue May 14 18:39:18 2019.
